 Output coordinates in angstroms (scale by  1.889725989 to convert to a.u.)

  No.       Tag          Charge          X              Y              Z
 ---- ---------------- ---------- -------------- -------------- --------------
    1 C                    6.0000     0.04832199    -0.32758784    -0.57790900
    2 N                    7.0000    -0.66579608    -1.26468321     0.25653663
    3 O                    8.0000     0.71728347    -1.19493321     0.22312828
    4 S                   16.0000     0.05103694     1.35100112     0.11168010
    5 H                    1.0000     0.09006344    -0.57356410    -1.66105641
    6 H                    1.0000    -0.92053266    -2.10124589    -0.31615089
    7 H                    1.0000    -1.35374884     1.43656721     0.07699707

         Total SCF energy =   -559.805671843961

 Vector    9  Occ=2.000000D+00  E=-1.475351D+00

 Vector   10  Occ=2.000000D+00  E=-9.950376D-01

 Vector   11  Occ=2.000000D+00  E=-9.450207D-01

 Vector   12  Occ=2.000000D+00  E=-7.882444D-01

 Vector   13  Occ=2.000000D+00  E=-6.849324D-01

 Vector   14  Occ=2.000000D+00  E=-5.582726D-01

 Vector   15  Occ=2.000000D+00  E=-5.320930D-01

 Vector   16  Occ=2.000000D+00  E=-4.688873D-01

 Vector   17  Occ=2.000000D+00  E=-4.034663D-01

 Vector   18  Occ=2.000000D+00  E=-3.769661D-01

 Vector   19  Occ=2.000000D+00  E=-3.449045D-01

 Vector   20  Occ=2.000000D+00  E=-2.848248D-01

 Vector   21  Occ=0.000000D+00  E= 3.836866D-01

 Vector   22  Occ=0.000000D+00  E= 4.384915D-01

 Vector   23  Occ=0.000000D+00  E= 4.764183D-01

 Vector   24  Occ=0.000000D+00  E= 5.615164D-01

 Vector   25  Occ=0.000000D+00  E= 5.916918D-01

 Vector   26  Occ=0.000000D+00  E= 6.957309D-01

 Vector   27  Occ=0.000000D+00  E= 7.512142D-01

       Multipole analysis of the density wrt the origin
       ------------------------------------------------

     L   x y z        total         open         nuclear
     -   - - -        -----         ----         -------
     0   0 0 0     -0.000000      0.000000     40.000000

     1   1 0 0     -0.379163      0.000000     -0.000000
     1   0 1 0     -0.042081      0.000000     -0.000000
     1   0 0 1     -0.898598      0.000000      0.000000

     2   2 0 0    -20.795959      0.000000     35.577691
     2   1 1 0      0.015619      0.000000     -0.059296
     2   1 0 1      0.494194      0.000000      0.162830
     2   0 2 0    -19.553629      0.000000    211.671163
     2   0 1 1      1.979027      0.000000      3.119572

 Total times  cpu:        1.3s     wall:        1.3s
