                         Program Version 4.2.1 -  RELEASE  -
|  1> ! rhf sto-3g extremescf noautostart nousesym
|  2>
|  3> * xyz 0 1
|  4> C         -4.17279        2.71785       -0.10705
|  5> N         -4.61074        1.36006        0.11435
|  6> O         -3.39764        1.66807       -0.47929
|  7> S         -3.54968        3.49993        1.40731
|  8> H         -4.65853        3.25487       -0.95033
|  9> H         -5.24440        1.07756       -0.66755
| 10> H         -4.78235        3.34711        2.06997
| 11> *
| 12>
| 13>                          ****END OF INPUT****

CARTESIAN COORDINATES (ANGSTROEM)
---------------------------------
  C     -4.172790    2.717850   -0.107050
  N     -4.610740    1.360060    0.114350
  O     -3.397640    1.668070   -0.479290
  S     -3.549680    3.499930    1.407310
  H     -4.658530    3.254870   -0.950330
  H     -5.244400    1.077560   -0.667550
  H     -4.782350    3.347110    2.069970

 Total Charge           Charge          ....    0
 Multiplicity           Mult            ....    1
 Number of Electrons    NEL             ....   40
 Basis Dimension        Dim             ....   27

ORBITAL ENERGIES
----------------

  NO   OCC          E(Eh)            E(eV)
   0   2.0000     -90.776263     -2470.1477
   1   2.0000     -20.342746      -553.5542
   2   2.0000     -15.402478      -419.1227
   3   2.0000     -11.142096      -303.1918
   4   2.0000      -8.674792      -236.0531
   5   2.0000      -6.306984      -171.6218
   6   2.0000      -6.304924      -171.5657
   7   2.0000      -6.301706      -171.4781
   8   2.0000      -1.475351       -40.1463
   9   2.0000      -0.995038       -27.0763
  10   2.0000      -0.945021       -25.7153
  11   2.0000      -0.788244       -21.4492
  12   2.0000      -0.684932       -18.6380
  13   2.0000      -0.558273       -15.1914
  14   2.0000      -0.532093       -14.4790
  15   2.0000      -0.468887       -12.7591
  16   2.0000      -0.403466       -10.9789
  17   2.0000      -0.376966       -10.2578
  18   2.0000      -0.344904        -9.3853
  19   2.0000      -0.284825        -7.7505
  20   0.0000       0.383687        10.4406
  21   0.0000       0.438491        11.9320
  22   0.0000       0.476418        12.9640
  23   0.0000       0.561516        15.2796
  24   0.0000       0.591692        16.1008

MULLIKEN ATOMIC CHARGES
-----------------------
   0 C :    0.009020
   1 N :   -0.218544
   2 O :   -0.169453
   3 S :    0.160074
   4 H :    0.076703
   5 H :    0.163483
   6 H :   -0.021285
Sum of atomic charges:   -0.0000000

LOEWDIN ATOMIC CHARGES
----------------------
   0 C :   -0.000659
   1 N :   -0.146385
   2 O :   -0.124253
   3 S :    0.180206
   4 H :    0.033816
   5 H :    0.103972
   6 H :   -0.046697

  Mayer bond orders larger than 0.100000
B(  0-C ,  1-N ) :   0.9630 B(  0-C ,  2-O ) :   0.9883 B(  0-C ,  3-S ) :   0.9580
B(  0-C ,  4-H ) :   0.9389 B(  1-N ,  2-O ) :   0.9882 B(  1-N ,  5-H ) :   0.9356
B(  3-S ,  6-H ) :   0.9824

FINAL SINGLE POINT ENERGY      -559.805671865886

DIPOLE MOMENT
-------------
                                X             Y             Z
Electronic contribution:      2.18183       0.57646       0.60492
Nuclear contribution   :     -2.91752      -0.08209      -1.01404
                        -----------------------------------------
Total Dipole Moment    :     -0.73569       0.49437      -0.40912
                        -----------------------------------------
Magnitude (a.u.)       :      0.97622
Magnitude (Debye)      :      2.48136

Rotational constants in cm-1:     0.644104     0.139476     0.130584
Rotational constants in MHz : 19309.741660  4181.374621  3914.818586

                             ****ORCA TERMINATED NORMALLY****
TOTAL RUN TIME: 0 days 0 hours 0 minutes 2 seconds 432 msec
