                               Psi4 1.3.2 release

  ==> Input File <==

--------------------------------------------------------------------------
molecule {
0 1
   C       -4.17279        2.71785       -0.10705
   N       -4.61074        1.36006        0.11435
   O       -3.39764        1.66807       -0.47929
   S       -3.54968        3.49993        1.40731
   H       -4.65853        3.25487       -0.95033
   H       -5.24440        1.07756       -0.66755
   H       -4.78235        3.34711        2.06997
}

set {
  basis sto-3g
  guess sad
  scf_type direct
  e_convergence 9
  d_convergence 9
}

energy('scf')
--------------------------------------------------------------------------

    Molecular point group: c1

    Geometry (in Angstrom), charge = 0, multiplicity = 1:

       Center              X                  Y                   Z               Mass
    ------------   -----------------  -----------------  -----------------  -----------------
         C           -0.311767253818     0.146471740213    -0.601905730933    12.000000000000
         N           -0.749717253818    -1.211318259787    -0.380505730933    14.003074004430
         O            0.463382746182    -0.903308259787    -0.974145730933    15.994914619570
         S            0.311342746182     0.928551740213     0.912454269067    31.972071174400
         H           -0.797507253818     0.683491740213    -1.445185730933     1.007825032230
         H           -1.383377253818    -1.493818259787    -1.162405730933     1.007825032230
         H           -0.921327253818     0.775731740213     1.575114269067     1.007825032230

  Charge       = 0
  Multiplicity = 1
  Basis Set: STO-3G
    Blend: STO-3G
  Basis Set: (STO-3G AUX)
    Blend: DEF2-SVP-JKFIT

    Orbital Energies [Eh]
    ---------------------

    Doubly Occupied:

       1A    -90.776263     2A    -20.342746     3A    -15.402478
       4A    -11.142096     5A     -8.674792     6A     -6.306984
       7A     -6.304924     8A     -6.301706     9A     -1.475351
      10A     -0.995038    11A     -0.945021    12A     -0.788244
      13A     -0.684932    14A     -0.558273    15A     -0.532093
      16A     -0.468887    17A     -0.403466    18A     -0.376966
      19A     -0.344904    20A     -0.284825

  @RHF Final Energy:  -559.80567186528128

   => Energetics <=

    Nuclear Repulsion Energy =            160.9971270146504310
    One-Electron Energy =               -1095.3856231263941936
    Two-Electron Energy =                 374.5828242464624509
    Total Energy =                       -559.8056718652812833

  Dipole Moment: [D]
     X:    -1.8699      Y:     1.2566      Z:    -1.0399     Total:     2.4813

*** Psi4 exiting successfully. Buy a developer a beer!
