 Q-Chem 4.3, Q-Chem, Inc., Pleasanton, CA (2015)
 Q-Chem 4.3.0 for Intel X86 EM64T Linux

User input:
--------------------------------------------------------------
$rem
 method = hf
 basis = sto-3g
 print_general_basis = true
 ! scf_guess = core
 xc_grid = 000128000770
 scf_convergence = 9
 thresh = 14
 scf_max_cycles = 1000
 symmetry = false
 sym_ignore = true
 cc_symmetry = false
 ! moprop_pertnum = 0
 ! moprop_conv_1st = 8
 ! moprop_diis = 0
 ! moprop_maxiter_1st = 1000
 ! cpscf_activate = 1
 ! cpscf_activate_internal = 0
$end

$molecule
0 1
C         -4.17279        2.71785       -0.10705
N         -4.61074        1.36006        0.11435
O         -3.39764        1.66807       -0.47929
S         -3.54968        3.49993        1.40731
H         -4.65853        3.25487       -0.95033
H         -5.24440        1.07756       -0.66755
H         -4.78235        3.34711        2.06997

$end
--------------------------------------------------------------

             Standard Nuclear Orientation (Angstroms)
    I     Atom           X                Y                Z
 ----------------------------------------------------------------
    1      C      -4.1727900000     2.7178500000    -0.1070500000
    2      N      -4.6107400000     1.3600600000     0.1143500000
    3      O      -3.3976400000     1.6680700000    -0.4792900000
    4      S      -3.5496800000     3.4999300000     1.4073100000
    5      H      -4.6585300000     3.2548700000    -0.9503300000
    6      H      -5.2444000000     1.0775600000    -0.6675500000
    7      H      -4.7823500000     3.3471100000     2.0699700000
 ----------------------------------------------------------------

   14    -559.8056719011      6.68E-10 Convergence criterion met
 Total energy in the final basis set = -559.8056719011

                    Orbital Energies (a.u.)
 --------------------------------------------------------------

 Alpha MOs
 -- Occupied --
-90.776 -20.343 -15.402 -11.142  -8.675  -6.307  -6.305  -6.302
 -1.475  -0.995  -0.945  -0.788  -0.685  -0.558  -0.532  -0.469
 -0.403  -0.377  -0.345  -0.285

          Ground-State Mulliken Net Atomic Charges

     Atom                 Charge (a.u.)
  ----------------------------------------
      1 C                     0.009020
      2 N                    -0.218544
      3 O                    -0.169453
      4 S                     0.160074
      5 H                     0.076703
      6 H                     0.163483
      7 H                    -0.021285
  ----------------------------------------
  Sum of atomic charges =     0.000000

                    Cartesian Multipole Moments
 -----------------------------------------------------------------
    Charge (ESU x 10^10)
                 0.0000
    Dipole Moment (Debye)
         X      -1.8699      Y       1.2566      Z      -1.0399
       Tot       2.4813
    Quadrupole Moments (Debye-Ang)
        XX     -12.3078     XY      -9.3521     YY     -23.1880
        XZ       4.7478     YZ      -1.0657     ZZ     -26.4046

 Total job time:  0.31s(wall), 0.33s(cpu)
        *  Thank you very much for using Q-Chem.  Have a nice day.  *
