                              Psi4 0.4.90 Driver

  ==> Input File <==

--------------------------------------------------------------------------
molecule {
0 1
   C       -4.17279        2.71785       -0.10705
   N       -4.61074        1.36006        0.11435
   O       -3.39764        1.66807       -0.47929
   S       -3.54968        3.49993        1.40731
   H       -4.65853        3.25487       -0.95033
   H       -5.24440        1.07756       -0.66755
   H       -4.78235        3.34711        2.06997
}

set {
  basis sto-3g
  guess sad
  scf_type direct
  e_convergence 10
  d_convergence 10
}

energy('ccsd(t)')
--------------------------------------------------------------------------

    Molecular point group: c1

    Geometry (in Angstrom), charge = 0, multiplicity = 1:

       Center              X                  Y                   Z               Mass
    ------------   -----------------  -----------------  -----------------  -----------------
           C         -0.311767253112     0.146471742334    -0.601905728855    12.000000000000
           N         -0.749717253112    -1.211318257666    -0.380505728855    14.003074004780
           O          0.463382746888    -0.903308257666    -0.974145728855    15.994914619560
           S          0.311342746888     0.928551742334     0.912454271145    31.972070999000
           H         -0.797507253112     0.683491742334    -1.445185728855     1.007825032070
           H         -1.383377253112    -1.493818257666    -1.162405728855     1.007825032070
           H         -0.921327253112     0.775731742334     1.575114271145     1.007825032070

  Charge       = 0
  Multiplicity = 1
  Basis Set: STO-3G
  Basis Set:

    Orbital Energies (a.u.)
    -----------------------

    Doubly Occupied:

       1A    -90.776263     2A    -20.342746     3A    -15.402478
       4A    -11.142096     5A     -8.674792     6A     -6.306984
       7A     -6.304924     8A     -6.301706     9A     -1.475351
      10A     -0.995038    11A     -0.945021    12A     -0.788244
      13A     -0.684932    14A     -0.558273    15A     -0.532093
      16A     -0.468887    17A     -0.403466    18A     -0.376966
      19A     -0.344904    20A     -0.284825

  @RHF Final Energy:  -559.80567176550903

   => Energetics <=

    Nuclear Repulsion Energy =            160.9971263818302418
    One-Electron Energy =               -1095.3856217022671444
    Two-Electron Energy =                 374.5828235549279270
    DFT Exchange-Correlation Energy =       0.0000000000000000
    Empirical Dispersion Energy =           0.0000000000000000
    PCM Polarization Energy =               0.0000000000000000
    EFP Energy =                            0.0000000000000000
    Total Energy =                       -559.8056717655090324
      * MP2 total energy                      = -559.978808523268981
      * CCSD total energy                 = -560.025933797014886
      * CCSD(T) total energy          = -560.028877858475767
